comment

12 atoms

2 atom types

-100.0 100.0 xlo xhi
-100.0 100.0 ylo yhi
-100.0 100.0 zlo zhi

Atoms

1 1 0.0 0.0 0.0
2 2 0.0 0.0 2.0
3 2 1.0 0 .0-1.0
4 2 -1.0 0.0 -1.0
5 2 0.0 1.0 -1.0
6 2 0.0 -1.0 -1.0
7 2 -0.6 -1.2 -0.0
8 2 -0.5877852522924731 0.8090169943749475 1.0
9 2 -0.9510565162951536 -0.30901699437494734 1.0
10 2 0.0 -1.0 1.0
11 2 0.9510565162951535 -0.30901699437494756 1.0
12 2 0.5877852522924732 0.8090169943749473 1.0
