comment

18 atoms

2 atom types

-100.0 100.0 xlo xhi
-100.0 100.0 ylo yhi
-100.0 100.0 zlo zhi

Atoms

1 1 0 0 0
2 2 0.122452073976 -0.314948155718 0.941176470588
3 2 -0.508721196903 0.251002095171 0.823529411765
4 2 0.680098351512 0.197980645712 0.705882352941
5 2 -0.419854506702 -0.691159483735 0.588235294118
6 2 -0.171610778475 0.865503583767 0.470588235294
7 2 0.754133726662 -0.553818425354 0.352941176471
8 2 -0.966240248768 -0.104959324792 0.235294117647
9 2 0.655525428347 0.745952801684 0.117647058824
10 2 0.0206633249105 -0.999786490709 6.12323399574e-17
11 2 -0.685786793246 0.718230912562 -0.117647058824
12 2 0.969751822919 -0.0649467485334 -0.235294117647
13 2 -0.730607163745 -0.584504660577 -0.352941176471
14 2 0.135703505491 0.871855074769 -0.470588235294
15 2 0.448053181052 -0.673221795327 -0.588235294118
16 2 -0.68769771416 0.169711395448 -0.705882352941
17 2 0.497915915532 0.271807006934 -0.823529411765
18 2 -0.109334533359 -0.319738660512 -0.941176470588
