comment

9 atoms

2 atom types

-100.0 100.0 xlo xhi
-100.0 100.0 ylo yhi
-100.0 100.0 zlo zhi

Atoms

1 1 0 0 0 
2 2 0.0 1.0 -1.0
3 2 -0.8660254037844388 -0.4999999999999998 -1.0
4 2 0.8660254037844384 -0.5000000000000004 -1.0
5 2 0.0 1.0 1.0
6 2 -1.0 6.123233995736766e-17 1.0
7 2 -1.2246467991473532e-16 -1.0 1.0
8 2 1.0 -1.8369701987210297e-16 1.0
9 2 0.0 0.0 2.0
