comment

12 atoms

2 atom types

-100.0 100.0 xlo xhi
-100.0 100.0 ylo yhi
-100.0 100.0 zlo zhi

Atoms

1 1 -0.0442441044873 -0.0079119096733 -0.0297432670482
2 2 -1.21628068251 -1.55765451296 0.211741126579
3 2 1.10719390242 -1.12217806174 1.12098541737
4 2 0.495497287636 -1.90658706191 -0.771022503999
5 2 -1.72695724779 0.272929968551 1.00507750779
6 2 0.0351480664212 0.421829852197 2.0054746802
7 2 -0.294406671526 -0.390380597922 -1.94123714463
8 2 1.50031271928 0.975707241074 0.716103398876
9 2 1.78420642029 -0.388456447217 -0.784199869635
10 2 -1.56871464469 0.841516840724 -0.996110939898
11 2 -0.436264055976 1.92431357605 0.470378118851
12 2 0.778407255639 1.38125822328 -1.25954994748
